LAMMPS data file. msi2lmp v3.9.9 / 05 Nov 2018 / CGCMM for quartz_pore

   1908 atoms
    300 bonds
    300 angles

   4 atom types
   1 bond types
   1 angle types
   
    -0.147157695    25.365942305 xlo xhi
     0.108127090    59.028127090 ylo yhi
	 2.396709242	67.220709242 zlo zhi

Masses

   1  15.999400 # oh
   2  15.999400 # oz
   3  28.085500 # sz
   4   1.007970 # ho

Pair Coeffs # lj/cut/coul/long

   1   0.15540000000 		3.1655700000 # oh
   2   0.15540000000 		3.1655700000 # oz
   3   0.00000184050 		3.3020000000 # sz
   4   0.00000000000 		0.0000000000 # ho

Bond Coeffs # harmonic

   1   554.1349     1.0000 # oh-ho

Angle Coeffs # harmonic

   1   30.0     109.47 # sz-oh-ho

Atoms  # full

1 1 1 -0.950000 6.741455 4.629561 5.089327 0 0 0
2 1 1 -0.950000 1.762907 4.629561 5.631334 0 0 0
3 1 1 -0.950000 15.245817 4.629561 5.089327 0 0 0
4 1 1 -0.950000 10.267270 4.629561 5.631334 0 0 0
5 1 1 -0.950000 23.750180 4.629561 5.089327 0 0 0
6 1 1 -0.950000 18.771632 4.629561 5.631334 0 0 0
7 1 2 -1.050000 0.638590 6.576936 66.311994 0 0 -1
8 1 2 -1.050000 4.890771 9.031934 66.311994 0 0 -1
9 1 2 -1.050000 2.489274 7.084559 5.089327 0 0 0
10 1 2 -1.050000 6.741455 9.539557 5.089327 0 0 0
11 1 2 -1.050000 1.124317 8.433487 3.288661 0 0 0
12 1 2 -1.050000 5.376499 5.978489 3.288661 0 0 0
13 1 2 -1.050000 1.762907 9.539557 5.631334 0 0 0
14 1 2 -1.050000 6.015089 7.084559 5.631334 0 0 0
15 1 2 -1.050000 3.127864 5.978489 66.854001 0 0 -1
16 1 2 -1.050000 7.380045 8.433487 66.854001 0 0 -1
17 1 2 -1.050000 3.613591 9.031934 3.830667 0 0 0
18 1 2 -1.050000 7.865772 6.576936 3.830667 0 0 0
19 1 3 2.100000 2.044367 6.090312 65.682664 0 0 -1
20 1 3 2.100000 6.296548 8.545310 65.682664 0 0 -1
21 1 3 2.100000 2.207814 8.545310 4.459997 0 0 0
22 1 3 2.100000 6.459996 6.090312 4.459997 0 0 0
23 1 3 2.100000 0.000000 7.459360 2.659331 0 0 0
24 1 3 2.100000 4.252181 5.004362 2.659331 0 0 0
25 1 2 -1.050000 9.142952 6.576936 66.311994 0 0 -1
26 1 2 -1.050000 13.395134 9.031934 66.311994 0 0 -1
27 1 2 -1.050000 10.993636 7.084559 5.089327 0 0 0
28 1 2 -1.050000 15.245817 9.539557 5.089327 0 0 0
29 1 2 -1.050000 9.628680 8.433487 3.288661 0 0 0
30 1 2 -1.050000 13.880861 5.978489 3.288661 0 0 0
31 1 2 -1.050000 10.267270 9.539557 5.631334 0 0 0
32 1 2 -1.050000 14.519451 7.084559 5.631334 0 0 0
33 1 2 -1.050000 11.632226 5.978489 66.854001 0 0 -1
34 1 2 -1.050000 15.884407 8.433487 66.854001 0 0 -1
35 1 2 -1.050000 12.117954 9.031934 3.830667 0 0 0
36 1 2 -1.050000 16.370135 6.576936 3.830667 0 0 0
37 1 3 2.100000 10.548729 6.090312 65.682664 0 0 -1
38 1 3 2.100000 14.800910 8.545310 65.682664 0 0 -1
39 1 3 2.100000 10.712177 8.545310 4.459997 0 0 0
40 1 3 2.100000 14.964358 6.090312 4.459997 0 0 0
41 1 3 2.100000 8.504362 7.459360 2.659331 0 0 0
42 1 3 2.100000 12.756544 5.004362 2.659331 0 0 0
43 1 2 -1.050000 17.647315 6.576936 66.311994 0 0 -1
44 1 2 -1.050000 21.899496 9.031934 66.311994 0 0 -1
45 1 2 -1.050000 19.497999 7.084559 5.089327 0 0 0
46 1 2 -1.050000 23.750180 9.539557 5.089327 0 0 0
47 1 2 -1.050000 18.133042 8.433487 3.288661 0 0 0
48 1 2 -1.050000 22.385223 5.978489 3.288661 0 0 0
49 1 2 -1.050000 18.771632 9.539557 5.631334 0 0 0
50 1 2 -1.050000 23.023813 7.084559 5.631334 0 0 0
51 1 2 -1.050000 20.136589 5.978489 66.854001 0 0 -1
52 1 2 -1.050000 24.388770 8.433487 66.854001 0 0 -1
53 1 2 -1.050000 20.622316 9.031934 3.830667 0 0 0
54 1 2 -1.050000 24.874497 6.576936 3.830667 0 0 0
55 1 3 2.100000 19.053091 6.090312 65.682664 0 0 -1
56 1 3 2.100000 23.305273 8.545310 65.682664 0 0 -1
57 1 3 2.100000 19.216539 8.545310 4.459997 0 0 0
58 1 3 2.100000 23.468720 6.090312 4.459997 0 0 0
59 1 3 2.100000 17.008725 7.459360 2.659331 0 0 0
60 1 3 2.100000 21.260906 5.004362 2.659331 0 0 0
61 1 2 -1.050000 0.638590 11.486932 66.311994 0 0 -1
62 1 2 -1.050000 4.890771 13.941930 66.311994 0 0 -1
63 1 2 -1.050000 2.489274 11.994555 5.089327 0 0 0
64 1 2 -1.050000 6.741455 14.449553 5.089327 0 0 0
65 1 2 -1.050000 1.124317 13.343483 3.288661 0 0 0
66 1 2 -1.050000 5.376499 10.888485 3.288661 0 0 0
67 1 2 -1.050000 1.762907 14.449553 5.631334 0 0 0
68 1 2 -1.050000 6.015089 11.994555 5.631334 0 0 0
69 1 2 -1.050000 3.127864 10.888485 66.854001 0 0 -1
70 1 2 -1.050000 7.380045 13.343483 66.854001 0 0 -1
71 1 2 -1.050000 3.613591 13.941930 3.830667 0 0 0
72 1 2 -1.050000 7.865772 11.486932 3.830667 0 0 0
73 1 3 2.100000 2.044367 11.000307 65.682664 0 0 -1
74 1 3 2.100000 6.296548 13.455305 65.682664 0 0 -1
75 1 3 2.100000 2.207814 13.455305 4.459997 0 0 0
76 1 3 2.100000 6.459996 11.000307 4.459997 0 0 0
77 1 3 2.100000 0.000000 12.369356 2.659331 0 0 0
78 1 3 2.100000 4.252181 9.914358 2.659331 0 0 0
79 1 2 -1.050000 9.142952 11.486932 66.311994 0 0 -1
80 1 2 -1.050000 13.395134 13.941930 66.311994 0 0 -1
81 1 2 -1.050000 10.993636 11.994555 5.089327 0 0 0
82 1 2 -1.050000 15.245817 14.449553 5.089327 0 0 0
83 1 2 -1.050000 9.628680 13.343483 3.288661 0 0 0
84 1 2 -1.050000 13.880861 10.888485 3.288661 0 0 0
85 1 2 -1.050000 10.267270 14.449553 5.631334 0 0 0
86 1 2 -1.050000 14.519451 11.994555 5.631334 0 0 0
87 1 2 -1.050000 11.632226 10.888485 66.854001 0 0 -1
88 1 2 -1.050000 15.884407 13.343483 66.854001 0 0 -1
89 1 2 -1.050000 12.117954 13.941930 3.830667 0 0 0
90 1 2 -1.050000 16.370135 11.486932 3.830667 0 0 0
91 1 3 2.100000 10.548729 11.000307 65.682664 0 0 -1
92 1 3 2.100000 14.800910 13.455305 65.682664 0 0 -1
93 1 3 2.100000 10.712177 13.455305 4.459997 0 0 0
94 1 3 2.100000 14.964358 11.000307 4.459997 0 0 0
95 1 3 2.100000 8.504362 12.369356 2.659331 0 0 0
96 1 3 2.100000 12.756544 9.914358 2.659331 0 0 0
97 1 2 -1.050000 17.647315 11.486932 66.311994 0 0 -1
98 1 2 -1.050000 21.899496 13.941930 66.311994 0 0 -1
99 1 2 -1.050000 19.497999 11.994555 5.089327 0 0 0
100 1 2 -1.050000 23.750180 14.449553 5.089327 0 0 0
101 1 2 -1.050000 18.133042 13.343483 3.288661 0 0 0
102 1 2 -1.050000 22.385223 10.888485 3.288661 0 0 0
103 1 2 -1.050000 18.771632 14.449553 5.631334 0 0 0
104 1 2 -1.050000 23.023813 11.994555 5.631334 0 0 0
105 1 2 -1.050000 20.136589 10.888485 66.854001 0 0 -1
106 1 2 -1.050000 24.388770 13.343483 66.854001 0 0 -1
107 1 2 -1.050000 20.622316 13.941930 3.830667 0 0 0
108 1 2 -1.050000 24.874497 11.486932 3.830667 0 0 0
109 1 3 2.100000 19.053091 11.000307 65.682664 0 0 -1
110 1 3 2.100000 23.305273 13.455305 65.682664 0 0 -1
111 1 3 2.100000 19.216539 13.455305 4.459997 0 0 0
112 1 3 2.100000 23.468720 11.000307 4.459997 0 0 0
113 1 3 2.100000 17.008725 12.369356 2.659331 0 0 0
114 1 3 2.100000 21.260906 9.914358 2.659331 0 0 0
115 1 2 -1.050000 0.638590 16.396928 66.311994 0 0 -1
116 1 2 -1.050000 4.890771 18.851926 66.311994 0 0 -1
117 1 2 -1.050000 2.489274 16.904551 5.089327 0 0 0
118 1 2 -1.050000 6.741455 19.359549 5.089327 0 0 0
119 1 2 -1.050000 1.124317 18.253478 3.288661 0 0 0
120 1 2 -1.050000 5.376499 15.798480 3.288661 0 0 0
121 1 2 -1.050000 1.762907 19.359549 5.631334 0 0 0
122 1 2 -1.050000 6.015089 16.904551 5.631334 0 0 0
123 1 2 -1.050000 3.127864 15.798480 66.854001 0 0 -1
124 1 2 -1.050000 7.380045 18.253478 66.854001 0 0 -1
125 1 2 -1.050000 3.613591 18.851926 3.830667 0 0 0
126 1 2 -1.050000 7.865772 16.396928 3.830667 0 0 0
127 1 3 2.100000 2.044367 15.910303 65.682664 0 0 -1
128 1 3 2.100000 6.296548 18.365301 65.682664 0 0 -1
129 1 3 2.100000 2.207814 18.365301 4.459997 0 0 0
130 1 3 2.100000 6.459996 15.910303 4.459997 0 0 0
131 1 3 2.100000 0.000000 17.279352 2.659331 0 0 0
132 1 3 2.100000 4.252181 14.824354 2.659331 0 0 0
133 1 2 -1.050000 9.142952 16.396928 66.311994 0 0 -1
134 1 2 -1.050000 13.395134 18.851926 66.311994 0 0 -1
135 1 2 -1.050000 10.993636 16.904551 5.089327 0 0 0
136 1 2 -1.050000 15.245817 19.359549 5.089327 0 0 0
137 1 2 -1.050000 9.628680 18.253478 3.288661 0 0 0
138 1 2 -1.050000 13.880861 15.798480 3.288661 0 0 0
139 1 2 -1.050000 10.267270 19.359549 5.631334 0 0 0
140 1 2 -1.050000 14.519451 16.904551 5.631334 0 0 0
141 1 2 -1.050000 11.632226 15.798480 66.854001 0 0 -1
142 1 2 -1.050000 15.884407 18.253478 66.854001 0 0 -1
143 1 2 -1.050000 12.117954 18.851926 3.830667 0 0 0
144 1 2 -1.050000 16.370135 16.396928 3.830667 0 0 0
145 1 3 2.100000 10.548729 15.910303 65.682664 0 0 -1
146 1 3 2.100000 14.800910 18.365301 65.682664 0 0 -1
147 1 3 2.100000 10.712177 18.365301 4.459997 0 0 0
148 1 3 2.100000 14.964358 15.910303 4.459997 0 0 0
149 1 3 2.100000 8.504362 17.279352 2.659331 0 0 0
150 1 3 2.100000 12.756544 14.824354 2.659331 0 0 0
151 1 2 -1.050000 17.647315 16.396928 66.311994 0 0 -1
152 1 2 -1.050000 21.899496 18.851926 66.311994 0 0 -1
153 1 2 -1.050000 19.497999 16.904551 5.089327 0 0 0
154 1 2 -1.050000 23.750180 19.359549 5.089327 0 0 0
155 1 2 -1.050000 18.133042 18.253478 3.288661 0 0 0
156 1 2 -1.050000 22.385223 15.798480 3.288661 0 0 0
157 1 2 -1.050000 18.771632 19.359549 5.631334 0 0 0
158 1 2 -1.050000 23.023813 16.904551 5.631334 0 0 0
159 1 2 -1.050000 20.136589 15.798480 66.854001 0 0 -1
160 1 2 -1.050000 24.388770 18.253478 66.854001 0 0 -1
161 1 2 -1.050000 20.622316 18.851926 3.830667 0 0 0
162 1 2 -1.050000 24.874497 16.396928 3.830667 0 0 0
163 1 3 2.100000 19.053091 15.910303 65.682664 0 0 -1
164 1 3 2.100000 23.305273 18.365301 65.682664 0 0 -1
165 1 3 2.100000 19.216539 18.365301 4.459997 0 0 0
166 1 3 2.100000 23.468720 15.910303 4.459997 0 0 0
167 1 3 2.100000 17.008725 17.279352 2.659331 0 0 0
168 1 3 2.100000 21.260906 14.824354 2.659331 0 0 0
169 1 2 -1.050000 0.638590 21.306924 66.311994 0 0 -1
170 1 2 -1.050000 4.890771 23.761922 66.311994 0 0 -1
171 1 2 -1.050000 2.489274 21.814547 5.089327 0 0 0
172 1 2 -1.050000 6.741455 24.269545 5.089327 0 0 0
173 1 2 -1.050000 1.124317 23.163474 3.288661 0 0 0
174 1 2 -1.050000 5.376499 20.708476 3.288661 0 0 0
175 1 2 -1.050000 1.762907 24.269545 5.631334 0 0 0
176 1 2 -1.050000 6.015089 21.814547 5.631334 0 0 0
177 1 2 -1.050000 3.127864 20.708476 66.854001 0 0 -1
178 1 2 -1.050000 7.380045 23.163474 66.854001 0 0 -1
179 1 2 -1.050000 3.613591 23.761922 3.830667 0 0 0
180 1 2 -1.050000 7.865772 21.306924 3.830667 0 0 0
181 1 3 2.100000 2.044367 20.820299 65.682664 0 0 -1
182 1 3 2.100000 6.296548 23.275297 65.682664 0 0 -1
183 1 3 2.100000 2.207814 23.275297 4.459997 0 0 0
184 1 3 2.100000 6.459996 20.820299 4.459997 0 0 0
185 1 3 2.100000 0.000000 22.189348 2.659331 0 0 0
186 1 3 2.100000 4.252181 19.734350 2.659331 0 0 0
187 1 2 -1.050000 9.142952 21.306924 66.311994 0 0 -1
188 1 2 -1.050000 13.395134 23.761922 66.311994 0 0 -1
189 1 2 -1.050000 10.993636 21.814547 5.089327 0 0 0
190 1 2 -1.050000 15.245817 24.269545 5.089327 0 0 0
191 1 2 -1.050000 9.628680 23.163474 3.288661 0 0 0
192 1 2 -1.050000 13.880861 20.708476 3.288661 0 0 0
193 1 2 -1.050000 10.267270 24.269545 5.631334 0 0 0
194 1 2 -1.050000 14.519451 21.814547 5.631334 0 0 0
195 1 2 -1.050000 11.632226 20.708476 66.854001 0 0 -1
196 1 2 -1.050000 15.884407 23.163474 66.854001 0 0 -1
197 1 2 -1.050000 12.117954 23.761922 3.830667 0 0 0
198 1 2 -1.050000 16.370135 21.306924 3.830667 0 0 0
199 1 3 2.100000 10.548729 20.820299 65.682664 0 0 -1
200 1 3 2.100000 14.800910 23.275297 65.682664 0 0 -1
201 1 3 2.100000 10.712177 23.275297 4.459997 0 0 0
202 1 3 2.100000 14.964358 20.820299 4.459997 0 0 0
203 1 3 2.100000 8.504362 22.189348 2.659331 0 0 0
204 1 3 2.100000 12.756544 19.734350 2.659331 0 0 0
205 1 2 -1.050000 17.647315 21.306924 66.311994 0 0 -1
206 1 2 -1.050000 21.899496 23.761922 66.311994 0 0 -1
207 1 2 -1.050000 19.497999 21.814547 5.089327 0 0 0
208 1 2 -1.050000 23.750180 24.269545 5.089327 0 0 0
209 1 2 -1.050000 18.133042 23.163474 3.288661 0 0 0
210 1 2 -1.050000 22.385223 20.708476 3.288661 0 0 0
211 1 2 -1.050000 18.771632 24.269545 5.631334 0 0 0
212 1 2 -1.050000 23.023813 21.814547 5.631334 0 0 0
213 1 2 -1.050000 20.136589 20.708476 66.854001 0 0 -1
214 1 2 -1.050000 24.388770 23.163474 66.854001 0 0 -1
215 1 2 -1.050000 20.622316 23.761922 3.830667 0 0 0
216 1 2 -1.050000 24.874497 21.306924 3.830667 0 0 0
217 1 3 2.100000 19.053091 20.820299 65.682664 0 0 -1
218 1 3 2.100000 23.305273 23.275297 65.682664 0 0 -1
219 1 3 2.100000 19.216539 23.275297 4.459997 0 0 0
220 1 3 2.100000 23.468720 20.820299 4.459997 0 0 0
221 1 3 2.100000 17.008725 22.189348 2.659331 0 0 0
222 1 3 2.100000 21.260906 19.734350 2.659331 0 0 0
223 1 2 -1.050000 0.638590 26.216920 66.311994 0 0 -1
224 1 2 -1.050000 4.890771 28.671917 66.311994 0 0 -1
225 1 2 -1.050000 2.489274 26.724543 5.089327 0 0 0
226 1 2 -1.050000 6.741455 29.179541 5.089327 0 0 0
227 1 2 -1.050000 1.124317 28.073470 3.288661 0 0 0
228 1 2 -1.050000 5.376499 25.618472 3.288661 0 0 0
229 1 2 -1.050000 1.762907 29.179541 5.631334 0 0 0
230 1 2 -1.050000 6.015089 26.724543 5.631334 0 0 0
231 1 2 -1.050000 3.127864 25.618472 66.854001 0 0 -1
232 1 2 -1.050000 7.380045 28.073470 66.854001 0 0 -1
233 1 2 -1.050000 3.613591 28.671917 3.830667 0 0 0
234 1 2 -1.050000 7.865772 26.216920 3.830667 0 0 0
235 1 3 2.100000 2.044367 25.730295 65.682664 0 0 -1
236 1 3 2.100000 6.296548 28.185293 65.682664 0 0 -1
237 1 3 2.100000 2.207814 28.185293 4.459997 0 0 0
238 1 3 2.100000 6.459996 25.730295 4.459997 0 0 0
239 1 3 2.100000 0.000000 27.099344 2.659331 0 0 0
240 1 3 2.100000 4.252181 24.644346 2.659331 0 0 0
241 1 2 -1.050000 9.142952 26.216920 66.311994 0 0 -1
242 1 2 -1.050000 13.395134 28.671917 66.311994 0 0 -1
243 1 2 -1.050000 10.993636 26.724543 5.089327 0 0 0
244 1 2 -1.050000 15.245817 29.179541 5.089327 0 0 0
245 1 2 -1.050000 9.628680 28.073470 3.288661 0 0 0
246 1 2 -1.050000 13.880861 25.618472 3.288661 0 0 0
247 1 2 -1.050000 10.267270 29.179541 5.631334 0 0 0
248 1 2 -1.050000 14.519451 26.724543 5.631334 0 0 0
249 1 2 -1.050000 11.632226 25.618472 66.854001 0 0 -1
250 1 2 -1.050000 15.884407 28.073470 66.854001 0 0 -1
251 1 2 -1.050000 12.117954 28.671917 3.830667 0 0 0
252 1 2 -1.050000 16.370135 26.216920 3.830667 0 0 0
253 1 3 2.100000 10.548729 25.730295 65.682664 0 0 -1
254 1 3 2.100000 14.800910 28.185293 65.682664 0 0 -1
255 1 3 2.100000 10.712177 28.185293 4.459997 0 0 0
256 1 3 2.100000 14.964358 25.730295 4.459997 0 0 0
257 1 3 2.100000 8.504362 27.099344 2.659331 0 0 0
258 1 3 2.100000 12.756544 24.644346 2.659331 0 0 0
259 1 2 -1.050000 17.647315 26.216920 66.311994 0 0 -1
260 1 2 -1.050000 21.899496 28.671917 66.311994 0 0 -1
261 1 2 -1.050000 19.497999 26.724543 5.089327 0 0 0
262 1 2 -1.050000 23.750180 29.179541 5.089327 0 0 0
263 1 2 -1.050000 18.133042 28.073470 3.288661 0 0 0
264 1 2 -1.050000 22.385223 25.618472 3.288661 0 0 0
265 1 2 -1.050000 18.771632 29.179541 5.631334 0 0 0
266 1 2 -1.050000 23.023813 26.724543 5.631334 0 0 0
267 1 2 -1.050000 20.136589 25.618472 66.854001 0 0 -1
268 1 2 -1.050000 24.388770 28.073470 66.854001 0 0 -1
269 1 2 -1.050000 20.622316 28.671917 3.830667 0 0 0
270 1 2 -1.050000 24.874497 26.216920 3.830667 0 0 0
271 1 3 2.100000 19.053091 25.730295 65.682664 0 0 -1
272 1 3 2.100000 23.305273 28.185293 65.682664 0 0 -1
273 1 3 2.100000 19.216539 28.185293 4.459997 0 0 0
274 1 3 2.100000 23.468720 25.730295 4.459997 0 0 0
275 1 3 2.100000 17.008725 27.099344 2.659331 0 0 0
276 1 3 2.100000 21.260906 24.644346 2.659331 0 0 0
277 1 2 -1.050000 0.638590 31.126915 66.311994 0 0 -1
278 1 2 -1.050000 4.890771 33.581913 66.311994 0 0 -1
279 1 2 -1.050000 2.489274 31.634539 5.089327 0 0 0
280 1 2 -1.050000 6.741455 34.089536 5.089327 0 0 0
281 1 2 -1.050000 1.124317 32.983466 3.288661 0 0 0
282 1 2 -1.050000 5.376499 30.528468 3.288661 0 0 0
283 1 2 -1.050000 1.762907 34.089536 5.631334 0 0 0
284 1 2 -1.050000 6.015089 31.634539 5.631334 0 0 0
285 1 2 -1.050000 3.127864 30.528468 66.854001 0 0 -1
286 1 2 -1.050000 7.380045 32.983466 66.854001 0 0 -1
287 1 2 -1.050000 3.613591 33.581913 3.830667 0 0 0
288 1 2 -1.050000 7.865772 31.126915 3.830667 0 0 0
289 1 3 2.100000 2.044367 30.640291 65.682664 0 0 -1
290 1 3 2.100000 6.296548 33.095289 65.682664 0 0 -1
291 1 3 2.100000 2.207814 33.095289 4.459997 0 0 0
292 1 3 2.100000 6.459996 30.640291 4.459997 0 0 0
293 1 3 2.100000 0.000000 32.009340 2.659331 0 0 0
294 1 3 2.100000 4.252181 29.554342 2.659331 0 0 0
295 1 2 -1.050000 9.142952 31.126915 66.311994 0 0 -1
296 1 2 -1.050000 13.395134 33.581913 66.311994 0 0 -1
297 1 2 -1.050000 10.993636 31.634539 5.089327 0 0 0
298 1 2 -1.050000 15.245817 34.089536 5.089327 0 0 0
299 1 2 -1.050000 9.628680 32.983466 3.288661 0 0 0
300 1 2 -1.050000 13.880861 30.528468 3.288661 0 0 0
301 1 2 -1.050000 10.267270 34.089536 5.631334 0 0 0
302 1 2 -1.050000 14.519451 31.634539 5.631334 0 0 0
303 1 2 -1.050000 11.632226 30.528468 66.854001 0 0 -1
304 1 2 -1.050000 15.884407 32.983466 66.854001 0 0 -1
305 1 2 -1.050000 12.117954 33.581913 3.830667 0 0 0
306 1 2 -1.050000 16.370135 31.126915 3.830667 0 0 0
307 1 3 2.100000 10.548729 30.640291 65.682664 0 0 -1
308 1 3 2.100000 14.800910 33.095289 65.682664 0 0 -1
309 1 3 2.100000 10.712177 33.095289 4.459997 0 0 0
310 1 3 2.100000 14.964358 30.640291 4.459997 0 0 0
311 1 3 2.100000 8.504362 32.009340 2.659331 0 0 0
312 1 3 2.100000 12.756544 29.554342 2.659331 0 0 0
313 1 2 -1.050000 17.647315 31.126915 66.311994 0 0 -1
314 1 2 -1.050000 21.899496 33.581913 66.311994 0 0 -1
315 1 2 -1.050000 19.497999 31.634539 5.089327 0 0 0
316 1 2 -1.050000 23.750180 34.089536 5.089327 0 0 0
317 1 2 -1.050000 18.133042 32.983466 3.288661 0 0 0
318 1 2 -1.050000 22.385223 30.528468 3.288661 0 0 0
319 1 2 -1.050000 18.771632 34.089536 5.631334 0 0 0
320 1 2 -1.050000 23.023813 31.634539 5.631334 0 0 0
321 1 2 -1.050000 20.136589 30.528468 66.854001 0 0 -1
322 1 2 -1.050000 24.388770 32.983466 66.854001 0 0 -1
323 1 2 -1.050000 20.622316 33.581913 3.830667 0 0 0
324 1 2 -1.050000 24.874497 31.126915 3.830667 0 0 0
325 1 3 2.100000 19.053091 30.640291 65.682664 0 0 -1
326 1 3 2.100000 23.305273 33.095289 65.682664 0 0 -1
327 1 3 2.100000 19.216539 33.095289 4.459997 0 0 0
328 1 3 2.100000 23.468720 30.640291 4.459997 0 0 0
329 1 3 2.100000 17.008725 32.009340 2.659331 0 0 0
330 1 3 2.100000 21.260906 29.554342 2.659331 0 0 0
331 1 2 -1.050000 0.638590 36.036911 66.311994 0 0 -1
332 1 2 -1.050000 4.890771 38.491909 66.311994 0 0 -1
333 1 2 -1.050000 2.489274 36.544534 5.089327 0 0 0
334 1 2 -1.050000 6.741455 38.999532 5.089327 0 0 0
335 1 2 -1.050000 1.124317 37.893462 3.288661 0 0 0
336 1 2 -1.050000 5.376499 35.438464 3.288661 0 0 0
337 1 2 -1.050000 1.762907 38.999532 5.631334 0 0 0
338 1 2 -1.050000 6.015089 36.544534 5.631334 0 0 0
339 1 2 -1.050000 3.127864 35.438464 66.854001 0 0 -1
340 1 2 -1.050000 7.380045 37.893462 66.854001 0 0 -1
341 1 2 -1.050000 3.613591 38.491909 3.830667 0 0 0
342 1 2 -1.050000 7.865772 36.036911 3.830667 0 0 0
343 1 3 2.100000 2.044367 35.550287 65.682664 0 0 -1
344 1 3 2.100000 6.296548 38.005285 65.682664 0 0 -1
345 1 3 2.100000 2.207814 38.005285 4.459997 0 0 0
346 1 3 2.100000 6.459996 35.550287 4.459997 0 0 0
347 1 3 2.100000 0.000000 36.919336 2.659331 0 0 0
348 1 3 2.100000 4.252181 34.464338 2.659331 0 0 0
349 1 2 -1.050000 9.142952 36.036911 66.311994 0 0 -1
350 1 2 -1.050000 13.395134 38.491909 66.311994 0 0 -1
351 1 2 -1.050000 10.993636 36.544534 5.089327 0 0 0
352 1 2 -1.050000 15.245817 38.999532 5.089327 0 0 0
353 1 2 -1.050000 9.628680 37.893462 3.288661 0 0 0
354 1 2 -1.050000 13.880861 35.438464 3.288661 0 0 0
355 1 2 -1.050000 10.267270 38.999532 5.631334 0 0 0
356 1 2 -1.050000 14.519451 36.544534 5.631334 0 0 0
357 1 2 -1.050000 11.632226 35.438464 66.854001 0 0 -1
358 1 2 -1.050000 15.884407 37.893462 66.854001 0 0 -1
359 1 2 -1.050000 12.117954 38.491909 3.830667 0 0 0
360 1 2 -1.050000 16.370135 36.036911 3.830667 0 0 0
361 1 3 2.100000 10.548729 35.550287 65.682664 0 0 -1
362 1 3 2.100000 14.800910 38.005285 65.682664 0 0 -1
363 1 3 2.100000 10.712177 38.005285 4.459997 0 0 0
364 1 3 2.100000 14.964358 35.550287 4.459997 0 0 0
365 1 3 2.100000 8.504362 36.919336 2.659331 0 0 0
366 1 3 2.100000 12.756544 34.464338 2.659331 0 0 0
367 1 2 -1.050000 17.647315 36.036911 66.311994 0 0 -1
368 1 2 -1.050000 21.899496 38.491909 66.311994 0 0 -1
369 1 2 -1.050000 19.497999 36.544534 5.089327 0 0 0
370 1 2 -1.050000 23.750180 38.999532 5.089327 0 0 0
371 1 2 -1.050000 18.133042 37.893462 3.288661 0 0 0
372 1 2 -1.050000 22.385223 35.438464 3.288661 0 0 0
373 1 2 -1.050000 18.771632 38.999532 5.631334 0 0 0
374 1 2 -1.050000 23.023813 36.544534 5.631334 0 0 0
375 1 2 -1.050000 20.136589 35.438464 66.854001 0 0 -1
376 1 2 -1.050000 24.388770 37.893462 66.854001 0 0 -1
377 1 2 -1.050000 20.622316 38.491909 3.830667 0 0 0
378 1 2 -1.050000 24.874497 36.036911 3.830667 0 0 0
379 1 3 2.100000 19.053091 35.550287 65.682664 0 0 -1
380 1 3 2.100000 23.305273 38.005285 65.682664 0 0 -1
381 1 3 2.100000 19.216539 38.005285 4.459997 0 0 0
382 1 3 2.100000 23.468720 35.550287 4.459997 0 0 0
383 1 3 2.100000 17.008725 36.919336 2.659331 0 0 0
384 1 3 2.100000 21.260906 34.464338 2.659331 0 0 0
385 1 2 -1.050000 0.638590 40.946907 66.311994 0 0 -1
386 1 2 -1.050000 4.890771 43.401905 66.311994 0 0 -1
387 1 2 -1.050000 2.489274 41.454530 5.089327 0 0 0
388 1 2 -1.050000 6.741455 43.909528 5.089327 0 0 0
389 1 2 -1.050000 1.124317 42.803458 3.288661 0 0 0
390 1 2 -1.050000 5.376499 40.348460 3.288661 0 0 0
391 1 2 -1.050000 1.762907 43.909528 5.631334 0 0 0
392 1 2 -1.050000 6.015089 41.454530 5.631334 0 0 0
393 1 2 -1.050000 3.127864 40.348460 66.854001 0 0 -1
394 1 2 -1.050000 7.380045 42.803458 66.854001 0 0 -1
395 1 2 -1.050000 3.613591 43.401905 3.830667 0 0 0
396 1 2 -1.050000 7.865772 40.946907 3.830667 0 0 0
397 1 3 2.100000 2.044367 40.460283 65.682664 0 0 -1
398 1 3 2.100000 6.296548 42.915281 65.682664 0 0 -1
399 1 3 2.100000 2.207814 42.915281 4.459997 0 0 0
400 1 3 2.100000 6.459996 40.460283 4.459997 0 0 0
401 1 3 2.100000 0.000000 41.829332 2.659331 0 0 0
402 1 3 2.100000 4.252181 39.374334 2.659331 0 0 0
403 1 2 -1.050000 9.142952 40.946907 66.311994 0 0 -1
404 1 2 -1.050000 13.395134 43.401905 66.311994 0 0 -1
405 1 2 -1.050000 10.993636 41.454530 5.089327 0 0 0
406 1 2 -1.050000 15.245817 43.909528 5.089327 0 0 0
407 1 2 -1.050000 9.628680 42.803458 3.288661 0 0 0
408 1 2 -1.050000 13.880861 40.348460 3.288661 0 0 0
409 1 2 -1.050000 10.267270 43.909528 5.631334 0 0 0
410 1 2 -1.050000 14.519451 41.454530 5.631334 0 0 0
411 1 2 -1.050000 11.632226 40.348460 66.854001 0 0 -1
412 1 2 -1.050000 15.884407 42.803458 66.854001 0 0 -1
413 1 2 -1.050000 12.117954 43.401905 3.830667 0 0 0
414 1 2 -1.050000 16.370135 40.946907 3.830667 0 0 0
415 1 3 2.100000 10.548729 40.460283 65.682664 0 0 -1
416 1 3 2.100000 14.800910 42.915281 65.682664 0 0 -1
417 1 3 2.100000 10.712177 42.915281 4.459997 0 0 0
418 1 3 2.100000 14.964358 40.460283 4.459997 0 0 0
419 1 3 2.100000 8.504362 41.829332 2.659331 0 0 0
420 1 3 2.100000 12.756544 39.374334 2.659331 0 0 0
421 1 2 -1.050000 17.647315 40.946907 66.311994 0 0 -1
422 1 2 -1.050000 21.899496 43.401905 66.311994 0 0 -1
423 1 2 -1.050000 19.497999 41.454530 5.089327 0 0 0
424 1 2 -1.050000 23.750180 43.909528 5.089327 0 0 0
425 1 2 -1.050000 18.133042 42.803458 3.288661 0 0 0
426 1 2 -1.050000 22.385223 40.348460 3.288661 0 0 0
427 1 2 -1.050000 18.771632 43.909528 5.631334 0 0 0
428 1 2 -1.050000 23.023813 41.454530 5.631334 0 0 0
429 1 2 -1.050000 20.136589 40.348460 66.854001 0 0 -1
430 1 2 -1.050000 24.388770 42.803458 66.854001 0 0 -1
431 1 2 -1.050000 20.622316 43.401905 3.830667 0 0 0
432 1 2 -1.050000 24.874497 40.946907 3.830667 0 0 0
433 1 3 2.100000 19.053091 40.460283 65.682664 0 0 -1
434 1 3 2.100000 23.305273 42.915281 65.682664 0 0 -1
435 1 3 2.100000 19.216539 42.915281 4.459997 0 0 0
436 1 3 2.100000 23.468720 40.460283 4.459997 0 0 0
437 1 3 2.100000 17.008725 41.829332 2.659331 0 0 0
438 1 3 2.100000 21.260906 39.374334 2.659331 0 0 0
439 1 2 -1.050000 0.638590 45.856903 66.311994 0 0 -1
440 1 2 -1.050000 4.890771 48.311901 66.311994 0 0 -1
441 1 2 -1.050000 2.489274 46.364526 5.089327 0 0 0
442 1 2 -1.050000 6.741455 48.819524 5.089327 0 0 0
443 1 2 -1.050000 1.124317 47.713454 3.288661 0 0 0
444 1 2 -1.050000 5.376499 45.258456 3.288661 0 0 0
445 1 2 -1.050000 1.762907 48.819524 5.631334 0 0 0
446 1 2 -1.050000 6.015089 46.364526 5.631334 0 0 0
447 1 2 -1.050000 3.127864 45.258456 66.854001 0 0 -1
448 1 2 -1.050000 7.380045 47.713454 66.854001 0 0 -1
449 1 2 -1.050000 3.613591 48.311901 3.830667 0 0 0
450 1 2 -1.050000 7.865772 45.856903 3.830667 0 0 0
451 1 3 2.100000 2.044367 45.370279 65.682664 0 0 -1
452 1 3 2.100000 6.296548 47.825277 65.682664 0 0 -1
453 1 3 2.100000 2.207814 47.825277 4.459997 0 0 0
454 1 3 2.100000 6.459996 45.370279 4.459997 0 0 0
455 1 3 2.100000 0.000000 46.739328 2.659331 0 0 0
456 1 3 2.100000 4.252181 44.284330 2.659331 0 0 0
457 1 2 -1.050000 9.142952 45.856903 66.311994 0 0 -1
458 1 2 -1.050000 13.395134 48.311901 66.311994 0 0 -1
459 1 2 -1.050000 10.993636 46.364526 5.089327 0 0 0
460 1 2 -1.050000 15.245817 48.819524 5.089327 0 0 0
461 1 2 -1.050000 9.628680 47.713454 3.288661 0 0 0
462 1 2 -1.050000 13.880861 45.258456 3.288661 0 0 0
463 1 2 -1.050000 10.267270 48.819524 5.631334 0 0 0
464 1 2 -1.050000 14.519451 46.364526 5.631334 0 0 0
465 1 2 -1.050000 11.632226 45.258456 66.854001 0 0 -1
466 1 2 -1.050000 15.884407 47.713454 66.854001 0 0 -1
467 1 2 -1.050000 12.117954 48.311901 3.830667 0 0 0
468 1 2 -1.050000 16.370135 45.856903 3.830667 0 0 0
469 1 3 2.100000 10.548729 45.370279 65.682664 0 0 -1
470 1 3 2.100000 14.800910 47.825277 65.682664 0 0 -1
471 1 3 2.100000 10.712177 47.825277 4.459997 0 0 0
472 1 3 2.100000 14.964358 45.370279 4.459997 0 0 0
473 1 3 2.100000 8.504362 46.739328 2.659331 0 0 0
474 1 3 2.100000 12.756544 44.284330 2.659331 0 0 0
475 1 2 -1.050000 17.647315 45.856903 66.311994 0 0 -1
476 1 2 -1.050000 21.899496 48.311901 66.311994 0 0 -1
477 1 2 -1.050000 19.497999 46.364526 5.089327 0 0 0
478 1 2 -1.050000 23.750180 48.819524 5.089327 0 0 0
479 1 2 -1.050000 18.133042 47.713454 3.288661 0 0 0
480 1 2 -1.050000 22.385223 45.258456 3.288661 0 0 0
481 1 2 -1.050000 18.771632 48.819524 5.631334 0 0 0
482 1 2 -1.050000 23.023813 46.364526 5.631334 0 0 0
483 1 2 -1.050000 20.136589 45.258456 66.854001 0 0 -1
484 1 2 -1.050000 24.388770 47.713454 66.854001 0 0 -1
485 1 2 -1.050000 20.622316 48.311901 3.830667 0 0 0
486 1 2 -1.050000 24.874497 45.856903 3.830667 0 0 0
487 1 3 2.100000 19.053091 45.370279 65.682664 0 0 -1
488 1 3 2.100000 23.305273 47.825277 65.682664 0 0 -1
489 1 3 2.100000 19.216539 47.825277 4.459997 0 0 0
490 1 3 2.100000 23.468720 45.370279 4.459997 0 0 0
491 1 3 2.100000 17.008725 46.739328 2.659331 0 0 0
492 1 3 2.100000 21.260906 44.284330 2.659331 0 0 0
493 1 2 -1.050000 0.638590 50.766899 66.311994 0 0 -1
494 1 2 -1.050000 4.890771 53.221897 66.311994 0 0 -1
495 1 2 -1.050000 2.489274 51.274522 5.089327 0 0 0
496 1 1 -0.950000 6.741455 53.729520 5.089327 0 0 0
497 1 2 -1.050000 1.124317 52.623450 3.288661 0 0 0
498 1 2 -1.050000 5.376499 50.168452 3.288661 0 0 0
499 1 1 -0.950000 1.762907 53.729520 5.631334 0 0 0
500 1 2 -1.050000 6.015089 51.274522 5.631334 0 0 0
501 1 2 -1.050000 3.127864 50.168452 66.854001 0 0 -1
502 1 2 -1.050000 7.380045 52.623450 66.854001 0 0 -1
503 1 2 -1.050000 3.613591 53.221897 3.830667 0 0 0
504 1 2 -1.050000 7.865772 50.766899 3.830667 0 0 0
505 1 3 2.100000 2.044367 50.280275 65.682664 0 0 -1
506 1 3 2.100000 6.296548 52.735273 65.682664 0 0 -1
507 1 3 2.100000 2.207814 52.735273 4.459997 0 0 0
508 1 3 2.100000 6.459996 50.280275 4.459997 0 0 0
509 1 3 2.100000 0.000000 51.649324 2.659331 0 0 0
510 1 3 2.100000 4.252181 49.194326 2.659331 0 0 0
511 1 2 -1.050000 9.142952 50.766899 66.311994 0 0 -1
512 1 2 -1.050000 13.395134 53.221897 66.311994 0 0 -1
513 1 2 -1.050000 10.993636 51.274522 5.089327 0 0 0
514 1 1 -0.950000 15.245817 53.729520 5.089327 0 0 0
515 1 2 -1.050000 9.628680 52.623450 3.288661 0 0 0
516 1 2 -1.050000 13.880861 50.168452 3.288661 0 0 0
517 1 1 -0.950000 10.267270 53.729520 5.631334 0 0 0
518 1 2 -1.050000 14.519451 51.274522 5.631334 0 0 0
519 1 2 -1.050000 11.632226 50.168452 66.854001 0 0 -1
520 1 2 -1.050000 15.884407 52.623450 66.854001 0 0 -1
521 1 2 -1.050000 12.117954 53.221897 3.830667 0 0 0
522 1 2 -1.050000 16.370135 50.766899 3.830667 0 0 0
523 1 3 2.100000 10.548729 50.280275 65.682664 0 0 -1
524 1 3 2.100000 14.800910 52.735273 65.682664 0 0 -1
525 1 3 2.100000 10.712177 52.735273 4.459997 0 0 0
526 1 3 2.100000 14.964358 50.280275 4.459997 0 0 0
527 1 3 2.100000 8.504362 51.649324 2.659331 0 0 0
528 1 3 2.100000 12.756544 49.194326 2.659331 0 0 0
529 1 2 -1.050000 17.647315 50.766899 66.311994 0 0 -1
530 1 2 -1.050000 21.899496 53.221897 66.311994 0 0 -1
531 1 2 -1.050000 19.497999 51.274522 5.089327 0 0 0
532 1 1 -0.950000 23.750180 53.729520 5.089327 0 0 0
533 1 2 -1.050000 18.133042 52.623450 3.288661 0 0 0
534 1 2 -1.050000 22.385223 50.168452 3.288661 0 0 0
535 1 1 -0.950000 18.771632 53.729520 5.631334 0 0 0
536 1 2 -1.050000 23.023813 51.274522 5.631334 0 0 0
537 1 2 -1.050000 20.136589 50.168452 66.854001 0 0 -1
538 1 2 -1.050000 24.388770 52.623450 66.854001 0 0 -1
539 1 2 -1.050000 20.622316 53.221897 3.830667 0 0 0
540 1 2 -1.050000 24.874497 50.766899 3.830667 0 0 0
541 1 3 2.100000 19.053091 50.280275 65.682664 0 0 -1
542 1 3 2.100000 23.305273 52.735273 65.682664 0 0 -1
543 1 3 2.100000 19.216539 52.735273 4.459997 0 0 0
544 1 3 2.100000 23.468720 50.280275 4.459997 0 0 0
545 1 3 2.100000 17.008725 51.649324 2.659331 0 0 0
546 1 3 2.100000 21.260906 49.194326 2.659331 0 0 0
547 1 3 2.100000 4.252181 54.104322 2.659331 0 0 0
548 1 3 2.100000 12.756544 54.104322 2.659331 0 0 0
549 1 3 2.100000 21.260906 54.104322 2.659331 0 0 0
550 1 1 -0.950000 0.638590 6.576936 6.889994 0 0 0
551 1 1 -0.950000 4.890771 9.031934 6.889994 0 0 0
552 1 1 -0.950000 3.127864 5.978489 7.432001 0 0 0
553 1 1 -0.950000 7.380045 8.433487 7.432001 0 0 0
554 1 3 2.100000 2.044367 6.090312 6.260664 0 0 0
555 1 3 2.100000 6.296548 8.545310 6.260664 0 0 0
556 1 1 -0.950000 9.142952 6.576936 6.889994 0 0 0